    1C
    1UModel: beam     Date: 10-Mar-1998                                 
    1UUSER                                                              
    1UDATE              05.march.2022                                   
    1UTIME              02:34:43                                        
    1UHOST                                                              
    1UPGM               CalculiX                                        
    1UVERSION           Version 2.17                             
    1UCOMPILETIME       Thu Jul 23 21:43:50 CEST 2020                    
    1UDIR                                                               
    1UDBN                                                               
    1UMAT    1EL                                                        
    2C                            20                                     1
 -1         1-1.00000E+00-1.00000E+00-1.00000E+00
 -1         2 1.00000E+00-1.00000E+00-1.00000E+00
 -1         3 1.00000E+00 1.00000E+00-1.00000E+00
 -1         4-1.00000E+00 1.00000E+00-1.00000E+00
 -1         5-1.00000E+00-1.00000E+00 1.00000E+00
 -1         6 1.00000E+00-1.00000E+00 1.00000E+00
 -1         7 1.00000E+00 1.00000E+00 1.00000E+00
 -1         8-1.00000E+00 1.00000E+00 1.00000E+00
 -1         9 0.00000E+00-1.00000E+00-1.00000E+00
 -1        10 1.00000E+00 0.00000E+00-1.00000E+00
 -1        11 0.00000E+00 1.00000E+00-1.00000E+00
 -1        12-1.00000E+00 0.00000E+00-1.00000E+00
 -1        13 0.00000E+00-1.00000E+00 1.00000E+00
 -1        14 1.00000E+00 0.00000E+00 1.00000E+00
 -1        15 0.00000E+00 1.00000E+00 1.00000E+00
 -1        16-1.00000E+00 0.00000E+00 1.00000E+00
 -1        17-1.00000E+00-1.00000E+00 0.00000E+00
 -1        18 1.00000E+00-1.00000E+00 0.00000E+00
 -1        19 1.00000E+00 1.00000E+00 0.00000E+00
 -1        20-1.00000E+00 1.00000E+00 0.00000E+00
 -3
    3C                             1                                     1
 -1         1    4    0    1
 -2         1         2         3         4         5         6         7         8         9        10
 -2        11        12        17        18        19        20        13        14        15        16
 -3
