    1C
    1UUSER                                                              
    1UDATE              06.march.2022                                   
    1UTIME              06:59:47                                        
    1UHOST                                                              
    1UPGM               CalculiX                                        
    1UVERSION           Version 2.17                             
    1UCOMPILETIME       Thu Jul 23 21:43:50 CEST 2020                    
    1UDIR                                                               
    1UDBN                                                               
    1UMAT    1EL                                                        
    2C                          1481                                     1
 -1         1 1.60000E+00 1.60000E+00 0.00000E+00
 -1         2 1.80000E+00 1.60000E+00 0.00000E+00
 -1         3 2.00000E+00 1.60000E+00 0.00000E+00
 -1         4 2.20000E+00 1.60000E+00 0.00000E+00
 -1         5 2.40000E+00 1.60000E+00 0.00000E+00
 -1         6 2.60000E+00 1.60000E+00 0.00000E+00
 -1         7 2.80000E+00 1.60000E+00 0.00000E+00
 -1         8 3.00000E+00 1.60000E+00 0.00000E+00
 -1         9 3.20000E+00 1.60000E+00 0.00000E+00
 -1        10 3.40000E+00 1.60000E+00 0.00000E+00
 -1        11 3.60000E+00 1.60000E+00 0.00000E+00
 -1        12 1.60000E+00 1.80000E+00 0.00000E+00
 -1        13 2.00000E+00 1.80000E+00 0.00000E+00
 -1        14 2.40000E+00 1.80000E+00 0.00000E+00
 -1        15 2.80000E+00 1.80000E+00 0.00000E+00
 -1        16 3.20000E+00 1.80000E+00 0.00000E+00
 -1        17 3.60000E+00 1.80000E+00 0.00000E+00
 -1        18 1.60000E+00 2.00000E+00 0.00000E+00
 -1        19 1.80000E+00 2.00000E+00 0.00000E+00
 -1        20 2.00000E+00 2.00000E+00 0.00000E+00
 -1        21 2.20000E+00 2.00000E+00 0.00000E+00
 -1        22 2.40000E+00 2.00000E+00 0.00000E+00
 -1        23 2.60000E+00 2.00000E+00 0.00000E+00
 -1        24 2.80000E+00 2.00000E+00 0.00000E+00
 -1        25 3.00000E+00 2.00000E+00 0.00000E+00
 -1        26 3.20000E+00 2.00000E+00 0.00000E+00
 -1        27 3.40000E+00 2.00000E+00 0.00000E+00
 -1        28 3.60000E+00 2.00000E+00 0.00000E+00
 -1        29 1.60000E+00 2.20000E+00 0.00000E+00
 -1        30 2.00000E+00 2.20000E+00 0.00000E+00
 -1        31 2.40000E+00 2.20000E+00 0.00000E+00
 -1        32 2.80000E+00 2.20000E+00 0.00000E+00
 -1        33 3.20000E+00 2.20000E+00 0.00000E+00
 -1        34 3.60000E+00 2.20000E+00 0.00000E+00
 -1        35 1.60000E+00 2.40000E+00 0.00000E+00
 -1        36 1.80000E+00 2.40000E+00 0.00000E+00
 -1        37 2.00000E+00 2.40000E+00 0.00000E+00
 -1        38 2.20000E+00 2.40000E+00 0.00000E+00
 -1        39 2.40000E+00 2.40000E+00 0.00000E+00
 -1        40 2.60000E+00 2.40000E+00 0.00000E+00
 -1        41 2.80000E+00 2.40000E+00 0.00000E+00
 -1        42 3.00000E+00 2.40000E+00 0.00000E+00
 -1        43 3.20000E+00 2.40000E+00 0.00000E+00
 -1        44 3.40000E+00 2.40000E+00 0.00000E+00
 -1        45 3.60000E+00 2.40000E+00 0.00000E+00
 -1        46 1.60000E+00 2.60000E+00 0.00000E+00
 -1        47 2.00000E+00 2.60000E+00 0.00000E+00
 -1        48 2.40000E+00 2.60000E+00 0.00000E+00
 -1        49 2.80000E+00 2.60000E+00 0.00000E+00
 -1        50 3.20000E+00 2.60000E+00 0.00000E+00
 -1        51 3.60000E+00 2.60000E+00 0.00000E+00
 -1        52 1.60000E+00 2.80000E+00 0.00000E+00
 -1        53 1.80000E+00 2.80000E+00 0.00000E+00
 -1        54 2.00000E+00 2.80000E+00 0.00000E+00
 -1        55 2.20000E+00 2.80000E+00 0.00000E+00
 -1        56 2.40000E+00 2.80000E+00 0.00000E+00
 -1        57 2.60000E+00 2.80000E+00 0.00000E+00
 -1        58 2.80000E+00 2.80000E+00 0.00000E+00
 -1        59 3.00000E+00 2.80000E+00 0.00000E+00
 -1        60 3.20000E+00 2.80000E+00 0.00000E+00
 -1        61 3.40000E+00 2.80000E+00 0.00000E+00
 -1        62 3.60000E+00 2.80000E+00 0.00000E+00
 -1        63 1.60000E+00 3.00000E+00 0.00000E+00
 -1        64 2.00000E+00 3.00000E+00 0.00000E+00
 -1        65 2.40000E+00 3.00000E+00 0.00000E+00
 -1        66 2.80000E+00 3.00000E+00 0.00000E+00
 -1        67 3.20000E+00 3.00000E+00 0.00000E+00
 -1        68 3.60000E+00 3.00000E+00 0.00000E+00
 -1        69 1.60000E+00 3.20000E+00 0.00000E+00
 -1        70 1.80000E+00 3.20000E+00 0.00000E+00
 -1        71 2.00000E+00 3.20000E+00 0.00000E+00
 -1        72 2.20000E+00 3.20000E+00 0.00000E+00
 -1        73 2.40000E+00 3.20000E+00 0.00000E+00
 -1        74 2.60000E+00 3.20000E+00 0.00000E+00
 -1        75 2.80000E+00 3.20000E+00 0.00000E+00
 -1        76 3.00000E+00 3.20000E+00 0.00000E+00
 -1        77 3.20000E+00 3.20000E+00 0.00000E+00
 -1        78 3.40000E+00 3.20000E+00 0.00000E+00
 -1        79 3.60000E+00 3.20000E+00 0.00000E+00
 -1        80 1.60000E+00 3.40000E+00 0.00000E+00
 -1        81 2.00000E+00 3.40000E+00 0.00000E+00
 -1        82 2.40000E+00 3.40000E+00 0.00000E+00
 -1        83 2.80000E+00 3.40000E+00 0.00000E+00
 -1        84 3.20000E+00 3.40000E+00 0.00000E+00
 -1        85 3.60000E+00 3.40000E+00 0.00000E+00
 -1        86 1.60000E+00 3.60000E+00 0.00000E+00
 -1        87 1.80000E+00 3.60000E+00 0.00000E+00
 -1        88 2.00000E+00 3.60000E+00 0.00000E+00
 -1        89 2.20000E+00 3.60000E+00 0.00000E+00
 -1        90 2.40000E+00 3.60000E+00 0.00000E+00
 -1        91 2.60000E+00 3.60000E+00 0.00000E+00
 -1        92 2.80000E+00 3.60000E+00 0.00000E+00
 -1        93 3.00000E+00 3.60000E+00 0.00000E+00
 -1        94 3.20000E+00 3.60000E+00 0.00000E+00
 -1        95 3.40000E+00 3.60000E+00 0.00000E+00
 -1        96 3.60000E+00 3.60000E+00 0.00000E+00
 -1        97 1.60000E+00 1.60000E+00 3.13750E-02
 -1        98 2.00000E+00 1.60000E+00 3.13750E-02
 -1        99 2.40000E+00 1.60000E+00 3.13750E-02
 -1       100 2.80000E+00 1.60000E+00 3.13750E-02
 -1       101 3.20000E+00 1.60000E+00 3.13750E-02
 -1       102 3.60000E+00 1.60000E+00 3.13750E-02
 -1       103 1.60000E+00 2.00000E+00 3.13750E-02
 -1       104 2.00000E+00 2.00000E+00 3.13750E-02
 -1       105 2.40000E+00 2.00000E+00 3.13750E-02
 -1       106 2.80000E+00 2.00000E+00 3.13750E-02
 -1       107 3.20000E+00 2.00000E+00 3.13750E-02
 -1       108 3.60000E+00 2.00000E+00 3.13750E-02
 -1       109 1.60000E+00 2.40000E+00 3.13750E-02
 -1       110 2.00000E+00 2.40000E+00 3.13750E-02
 -1       111 2.40000E+00 2.40000E+00 3.13750E-02
 -1       112 2.80000E+00 2.40000E+00 3.13750E-02
 -1       113 3.20000E+00 2.40000E+00 3.13750E-02
 -1       114 3.60000E+00 2.40000E+00 3.13750E-02
 -1       115 1.60000E+00 2.80000E+00 3.13750E-02
 -1       116 2.00000E+00 2.80000E+00 3.13750E-02
 -1       117 2.40000E+00 2.80000E+00 3.13750E-02
 -1       118 2.80000E+00 2.80000E+00 3.13750E-02
 -1       119 3.20000E+00 2.80000E+00 3.13750E-02
 -1       120 3.60000E+00 2.80000E+00 3.13750E-02
 -1       121 1.60000E+00 3.20000E+00 3.13750E-02
 -1       122 2.00000E+00 3.20000E+00 3.13750E-02
 -1       123 2.40000E+00 3.20000E+00 3.13750E-02
 -1       124 2.80000E+00 3.20000E+00 3.13750E-02
 -1       125 3.20000E+00 3.20000E+00 3.13750E-02
 -1       126 3.60000E+00 3.20000E+00 3.13750E-02
 -1       127 1.60000E+00 3.60000E+00 3.13750E-02
 -1       128 2.00000E+00 3.60000E+00 3.13750E-02
 -1       129 2.40000E+00 3.60000E+00 3.13750E-02
 -1       130 2.80000E+00 3.60000E+00 3.13750E-02
 -1       131 3.20000E+00 3.60000E+00 3.13750E-02
 -1       132 3.60000E+00 3.60000E+00 3.13750E-02
 -1       133 1.60000E+00 1.60000E+00 6.27500E-02
 -1       134 1.80000E+00 1.60000E+00 6.27500E-02
 -1       135 2.00000E+00 1.60000E+00 6.27500E-02
 -1       136 2.20000E+00 1.60000E+00 6.27500E-02
 -1       137 2.40000E+00 1.60000E+00 6.27500E-02
 -1       138 2.60000E+00 1.60000E+00 6.27500E-02
 -1       139 2.80000E+00 1.60000E+00 6.27500E-02
 -1       140 3.00000E+00 1.60000E+00 6.27500E-02
 -1       141 3.20000E+00 1.60000E+00 6.27500E-02
 -1       142 3.40000E+00 1.60000E+00 6.27500E-02
 -1       143 3.60000E+00 1.60000E+00 6.27500E-02
 -1       144 1.60000E+00 1.80000E+00 6.27500E-02
 -1       145 2.00000E+00 1.80000E+00 6.27500E-02
 -1       146 2.40000E+00 1.80000E+00 6.27500E-02
 -1       147 2.80000E+00 1.80000E+00 6.27500E-02
 -1       148 3.20000E+00 1.80000E+00 6.27500E-02
 -1       149 3.60000E+00 1.80000E+00 6.27500E-02
 -1       150 1.60000E+00 2.00000E+00 6.27500E-02
 -1       151 1.80000E+00 2.00000E+00 6.27500E-02
 -1       152 2.00000E+00 2.00000E+00 6.27500E-02
 -1       153 2.20000E+00 2.00000E+00 6.27500E-02
 -1       154 2.40000E+00 2.00000E+00 6.27500E-02
 -1       155 2.60000E+00 2.00000E+00 6.27500E-02
 -1       156 2.80000E+00 2.00000E+00 6.27500E-02
 -1       157 3.00000E+00 2.00000E+00 6.27500E-02
 -1       158 3.20000E+00 2.00000E+00 6.27500E-02
 -1       159 3.40000E+00 2.00000E+00 6.27500E-02
 -1       160 3.60000E+00 2.00000E+00 6.27500E-02
 -1       161 1.60000E+00 2.20000E+00 6.27500E-02
 -1       162 2.00000E+00 2.20000E+00 6.27500E-02
 -1       163 2.40000E+00 2.20000E+00 6.27500E-02
 -1       164 2.80000E+00 2.20000E+00 6.27500E-02
 -1       165 3.20000E+00 2.20000E+00 6.27500E-02
 -1       166 3.60000E+00 2.20000E+00 6.27500E-02
 -1       167 1.60000E+00 2.40000E+00 6.27500E-02
 -1       168 1.80000E+00 2.40000E+00 6.27500E-02
 -1       169 2.00000E+00 2.40000E+00 6.27500E-02
 -1       170 2.20000E+00 2.40000E+00 6.27500E-02
 -1       171 2.40000E+00 2.40000E+00 6.27500E-02
 -1       172 2.60000E+00 2.40000E+00 6.27500E-02
 -1       173 2.80000E+00 2.40000E+00 6.27500E-02
 -1       174 3.00000E+00 2.40000E+00 6.27500E-02
 -1       175 3.20000E+00 2.40000E+00 6.27500E-02
 -1       176 3.40000E+00 2.40000E+00 6.27500E-02
 -1       177 3.60000E+00 2.40000E+00 6.27500E-02
 -1       178 1.60000E+00 2.60000E+00 6.27500E-02
 -1       179 2.00000E+00 2.60000E+00 6.27500E-02
 -1       180 2.40000E+00 2.60000E+00 6.27500E-02
 -1       181 2.80000E+00 2.60000E+00 6.27500E-02
 -1       182 3.20000E+00 2.60000E+00 6.27500E-02
 -1       183 3.60000E+00 2.60000E+00 6.27500E-02
 -1       184 1.60000E+00 2.80000E+00 6.27500E-02
 -1       185 1.80000E+00 2.80000E+00 6.27500E-02
 -1       186 2.00000E+00 2.80000E+00 6.27500E-02
 -1       187 2.20000E+00 2.80000E+00 6.27500E-02
 -1       188 2.40000E+00 2.80000E+00 6.27500E-02
 -1       189 2.60000E+00 2.80000E+00 6.27500E-02
 -1       190 2.80000E+00 2.80000E+00 6.27500E-02
 -1       191 3.00000E+00 2.80000E+00 6.27500E-02
 -1       192 3.20000E+00 2.80000E+00 6.27500E-02
 -1       193 3.40000E+00 2.80000E+00 6.27500E-02
 -1       194 3.60000E+00 2.80000E+00 6.27500E-02
 -1       195 1.60000E+00 3.00000E+00 6.27500E-02
 -1       196 2.00000E+00 3.00000E+00 6.27500E-02
 -1       197 2.40000E+00 3.00000E+00 6.27500E-02
 -1       198 2.80000E+00 3.00000E+00 6.27500E-02
 -1       199 3.20000E+00 3.00000E+00 6.27500E-02
 -1       200 3.60000E+00 3.00000E+00 6.27500E-02
 -1       201 1.60000E+00 3.20000E+00 6.27500E-02
 -1       202 1.80000E+00 3.20000E+00 6.27500E-02
 -1       203 2.00000E+00 3.20000E+00 6.27500E-02
 -1       204 2.20000E+00 3.20000E+00 6.27500E-02
 -1       205 2.40000E+00 3.20000E+00 6.27500E-02
 -1       206 2.60000E+00 3.20000E+00 6.27500E-02
 -1       207 2.80000E+00 3.20000E+00 6.27500E-02
 -1       208 3.00000E+00 3.20000E+00 6.27500E-02
 -1       209 3.20000E+00 3.20000E+00 6.27500E-02
 -1       210 3.40000E+00 3.20000E+00 6.27500E-02
 -1       211 3.60000E+00 3.20000E+00 6.27500E-02
 -1       212 1.60000E+00 3.40000E+00 6.27500E-02
 -1       213 2.00000E+00 3.40000E+00 6.27500E-02
 -1       214 2.40000E+00 3.40000E+00 6.27500E-02
 -1       215 2.80000E+00 3.40000E+00 6.27500E-02
 -1       216 3.20000E+00 3.40000E+00 6.27500E-02
 -1       217 3.60000E+00 3.40000E+00 6.27500E-02
 -1       218 1.60000E+00 3.60000E+00 6.27500E-02
 -1       219 1.80000E+00 3.60000E+00 6.27500E-02
 -1       220 2.00000E+00 3.60000E+00 6.27500E-02
 -1       221 2.20000E+00 3.60000E+00 6.27500E-02
 -1       222 2.40000E+00 3.60000E+00 6.27500E-02
 -1       223 2.60000E+00 3.60000E+00 6.27500E-02
 -1       224 2.80000E+00 3.60000E+00 6.27500E-02
 -1       225 3.00000E+00 3.60000E+00 6.27500E-02
 -1       226 3.20000E+00 3.60000E+00 6.27500E-02
 -1       227 3.40000E+00 3.60000E+00 6.27500E-02
 -1       228 3.60000E+00 3.60000E+00 6.27500E-02
 -1       229 1.60000E+00 1.60000E+00 9.41250E-02
 -1       230 2.00000E+00 1.60000E+00 9.41250E-02
 -1       231 2.40000E+00 1.60000E+00 9.41250E-02
 -1       232 2.80000E+00 1.60000E+00 9.41250E-02
 -1       233 3.20000E+00 1.60000E+00 9.41250E-02
 -1       234 3.60000E+00 1.60000E+00 9.41250E-02
 -1       235 1.60000E+00 2.00000E+00 9.41250E-02
 -1       236 2.00000E+00 2.00000E+00 9.41250E-02
 -1       237 2.40000E+00 2.00000E+00 9.41250E-02
 -1       238 2.80000E+00 2.00000E+00 9.41250E-02
 -1       239 3.20000E+00 2.00000E+00 9.41250E-02
 -1       240 3.60000E+00 2.00000E+00 9.41250E-02
 -1       241 1.60000E+00 2.40000E+00 9.41250E-02
 -1       242 2.00000E+00 2.40000E+00 9.41250E-02
 -1       243 2.40000E+00 2.40000E+00 9.41250E-02
 -1       244 2.80000E+00 2.40000E+00 9.41250E-02
 -1       245 3.20000E+00 2.40000E+00 9.41250E-02
 -1       246 3.60000E+00 2.40000E+00 9.41250E-02
 -1       247 1.60000E+00 2.80000E+00 9.41250E-02
 -1       248 2.00000E+00 2.80000E+00 9.41250E-02
 -1       249 2.40000E+00 2.80000E+00 9.41250E-02
 -1       250 2.80000E+00 2.80000E+00 9.41250E-02
 -1       251 3.20000E+00 2.80000E+00 9.41250E-02
 -1       252 3.60000E+00 2.80000E+00 9.41250E-02
 -1       253 1.60000E+00 3.20000E+00 9.41250E-02
 -1       254 2.00000E+00 3.20000E+00 9.41250E-02
 -1       255 2.40000E+00 3.20000E+00 9.41250E-02
 -1       256 2.80000E+00 3.20000E+00 9.41250E-02
 -1       257 3.20000E+00 3.20000E+00 9.41250E-02
 -1       258 3.60000E+00 3.20000E+00 9.41250E-02
 -1       259 1.60000E+00 3.60000E+00 9.41250E-02
 -1       260 2.00000E+00 3.60000E+00 9.41250E-02
 -1       261 2.40000E+00 3.60000E+00 9.41250E-02
 -1       262 2.80000E+00 3.60000E+00 9.41250E-02
 -1       263 3.20000E+00 3.60000E+00 9.41250E-02
 -1       264 3.60000E+00 3.60000E+00 9.41250E-02
 -1       265 1.20000E+00 0.00000E+00 1.25500E-01
 -1       266 1.40000E+00 0.00000E+00 1.25500E-01
 -1       267 1.60000E+00 0.00000E+00 1.25500E-01
 -1       268 1.80000E+00 0.00000E+00 1.25500E-01
 -1       269 2.00000E+00 0.00000E+00 1.25500E-01
 -1       270 2.20000E+00 0.00000E+00 1.25500E-01
 -1       271 2.40000E+00 0.00000E+00 1.25500E-01
 -1       272 2.60000E+00 0.00000E+00 1.25500E-01
 -1       273 2.80000E+00 0.00000E+00 1.25500E-01
 -1       274 3.00000E+00 0.00000E+00 1.25500E-01
 -1       275 3.20000E+00 0.00000E+00 1.25500E-01
 -1       276 3.40000E+00 0.00000E+00 1.25500E-01
 -1       277 3.60000E+00 0.00000E+00 1.25500E-01
 -1       278 3.80000E+00 0.00000E+00 1.25500E-01
 -1       279 4.00000E+00 0.00000E+00 1.25500E-01
 -1       280 1.20000E+00 2.00000E-01 1.25500E-01
 -1       281 1.60000E+00 2.00000E-01 1.25500E-01
 -1       282 2.00000E+00 2.00000E-01 1.25500E-01
 -1       283 2.40000E+00 2.00000E-01 1.25500E-01
 -1       284 2.80000E+00 2.00000E-01 1.25500E-01
 -1       285 3.20000E+00 2.00000E-01 1.25500E-01
 -1       286 3.60000E+00 2.00000E-01 1.25500E-01
 -1       287 4.00000E+00 2.00000E-01 1.25500E-01
 -1       288 1.20000E+00 4.00000E-01 1.25500E-01
 -1       289 1.40000E+00 4.00000E-01 1.25500E-01
 -1       290 1.60000E+00 4.00000E-01 1.25500E-01
 -1       291 1.80000E+00 4.00000E-01 1.25500E-01
 -1       292 2.00000E+00 4.00000E-01 1.25500E-01
 -1       293 2.20000E+00 4.00000E-01 1.25500E-01
 -1       294 2.40000E+00 4.00000E-01 1.25500E-01
 -1       295 2.60000E+00 4.00000E-01 1.25500E-01
 -1       296 2.80000E+00 4.00000E-01 1.25500E-01
 -1       297 3.00000E+00 4.00000E-01 1.25500E-01
 -1       298 3.20000E+00 4.00000E-01 1.25500E-01
 -1       299 3.40000E+00 4.00000E-01 1.25500E-01
 -1       300 3.60000E+00 4.00000E-01 1.25500E-01
 -1       301 3.80000E+00 4.00000E-01 1.25500E-01
 -1       302 4.00000E+00 4.00000E-01 1.25500E-01
 -1       303 1.20000E+00 6.00000E-01 1.25500E-01
 -1       304 1.60000E+00 6.00000E-01 1.25500E-01
 -1       305 2.00000E+00 6.00000E-01 1.25500E-01
 -1       306 2.40000E+00 6.00000E-01 1.25500E-01
 -1       307 2.80000E+00 6.00000E-01 1.25500E-01
 -1       308 3.20000E+00 6.00000E-01 1.25500E-01
 -1       309 3.60000E+00 6.00000E-01 1.25500E-01
 -1       310 4.00000E+00 6.00000E-01 1.25500E-01
 -1       311 8.00000E-01 8.00000E-01 1.25500E-01
 -1       312 1.00000E+00 8.00000E-01 1.25500E-01
 -1       313 1.20000E+00 8.00000E-01 1.25500E-01
 -1       314 1.40000E+00 8.00000E-01 1.25500E-01
 -1       315 1.60000E+00 8.00000E-01 1.25500E-01
 -1       316 1.80000E+00 8.00000E-01 1.25500E-01
 -1       317 2.00000E+00 8.00000E-01 1.25500E-01
 -1       318 2.20000E+00 8.00000E-01 1.25500E-01
 -1       319 2.40000E+00 8.00000E-01 1.25500E-01
 -1       320 2.80000E+00 8.00000E-01 1.25500E-01
 -1       321 3.00000E+00 8.00000E-01 1.25500E-01
 -1       322 3.20000E+00 8.00000E-01 1.25500E-01
 -1       323 3.40000E+00 8.00000E-01 1.25500E-01
 -1       324 3.60000E+00 8.00000E-01 1.25500E-01
 -1       325 3.80000E+00 8.00000E-01 1.25500E-01
 -1       326 4.00000E+00 8.00000E-01 1.25500E-01
 -1       327 4.20000E+00 8.00000E-01 1.25500E-01
 -1       328 4.40000E+00 8.00000E-01 1.25500E-01
 -1       329 8.00000E-01 1.00000E+00 1.25500E-01
 -1       330 1.20000E+00 1.00000E+00 1.25500E-01
 -1       331 1.60000E+00 1.00000E+00 1.25500E-01
 -1       332 3.20000E+00 1.00000E+00 1.25500E-01
 -1       333 3.60000E+00 1.00000E+00 1.25500E-01
 -1       334 4.00000E+00 1.00000E+00 1.25500E-01
 -1       335 4.40000E+00 1.00000E+00 1.25500E-01
 -1       336 0.00000E+00 1.20000E+00 1.25500E-01
 -1       337 2.00000E-01 1.20000E+00 1.25500E-01
 -1       338 4.00000E-01 1.20000E+00 1.25500E-01
 -1       339 6.00000E-01 1.20000E+00 1.25500E-01
 -1       340 8.00000E-01 1.20000E+00 1.25500E-01
 -1       341 1.00000E+00 1.20000E+00 1.25500E-01
 -1       342 1.20000E+00 1.20000E+00 1.25500E-01
 -1       343 1.40000E+00 1.20000E+00 1.25500E-01
 -1       344 1.60000E+00 1.20000E+00 1.25500E-01
 -1       345 3.20000E+00 1.20000E+00 1.25500E-01
 -1       346 3.40000E+00 1.20000E+00 1.25500E-01
 -1       347 3.60000E+00 1.20000E+00 1.25500E-01
 -1       348 3.80000E+00 1.20000E+00 1.25500E-01
 -1       349 4.00000E+00 1.20000E+00 1.25500E-01
 -1       350 4.20000E+00 1.20000E+00 1.25500E-01
 -1       351 4.40000E+00 1.20000E+00 1.25500E-01
 -1       352 4.60000E+00 1.20000E+00 1.25500E-01
 -1       353 4.80000E+00 1.20000E+00 1.25500E-01
 -1       354 5.00000E+00 1.20000E+00 1.25500E-01
 -1       355 5.20000E+00 1.20000E+00 1.25500E-01
 -1       356 0.00000E+00 1.40000E+00 1.25500E-01
 -1       357 4.00000E-01 1.40000E+00 1.25500E-01
 -1       358 8.00000E-01 1.40000E+00 1.25500E-01
 -1       359 1.20000E+00 1.40000E+00 1.25500E-01
 -1       360 1.60000E+00 1.40000E+00 1.25500E-01
 -1       361 3.60000E+00 1.40000E+00 1.25500E-01
 -1       362 4.00000E+00 1.40000E+00 1.25500E-01
 -1       363 4.40000E+00 1.40000E+00 1.25500E-01
 -1       364 4.80000E+00 1.40000E+00 1.25500E-01
 -1       365 5.20000E+00 1.40000E+00 1.25500E-01
 -1       366 0.00000E+00 1.60000E+00 1.25500E-01
 -1       367 2.00000E-01 1.60000E+00 1.25500E-01
 -1       368 4.00000E-01 1.60000E+00 1.25500E-01
 -1       369 6.00000E-01 1.60000E+00 1.25500E-01
 -1       370 8.00000E-01 1.60000E+00 1.25500E-01
 -1       371 1.00000E+00 1.60000E+00 1.25500E-01
 -1       372 1.20000E+00 1.60000E+00 1.25500E-01
 -1       373 1.40000E+00 1.60000E+00 1.25500E-01
 -1       374 1.60000E+00 1.60000E+00 1.25500E-01
 -1       375 1.80000E+00 1.60000E+00 1.25500E-01
 -1       376 2.00000E+00 1.60000E+00 1.25500E-01
 -1       377 2.20000E+00 1.60000E+00 1.25500E-01
 -1       378 2.40000E+00 1.60000E+00 1.25500E-01
 -1       379 2.60000E+00 1.60000E+00 1.25500E-01
 -1       380 2.80000E+00 1.60000E+00 1.25500E-01
 -1       381 3.00000E+00 1.60000E+00 1.25500E-01
 -1       382 3.20000E+00 1.60000E+00 1.25500E-01
 -1       383 3.40000E+00 1.60000E+00 1.25500E-01
 -1       384 3.60000E+00 1.60000E+00 1.25500E-01
 -1       385 3.80000E+00 1.60000E+00 1.25500E-01
 -1       386 4.00000E+00 1.60000E+00 1.25500E-01
 -1       387 4.20000E+00 1.60000E+00 1.25500E-01
 -1       388 4.40000E+00 1.60000E+00 1.25500E-01
 -1       389 4.60000E+00 1.60000E+00 1.25500E-01
 -1       390 4.80000E+00 1.60000E+00 1.25500E-01
 -1       391 5.00000E+00 1.60000E+00 1.25500E-01
 -1       392 5.20000E+00 1.60000E+00 1.25500E-01
 -1       393 0.00000E+00 1.80000E+00 1.25500E-01
 -1       394 4.00000E-01 1.80000E+00 1.25500E-01
 -1       395 8.00000E-01 1.80000E+00 1.25500E-01
 -1       396 1.20000E+00 1.80000E+00 1.25500E-01
 -1       397 1.60000E+00 1.80000E+00 1.25500E-01
 -1       398 2.00000E+00 1.80000E+00 1.25500E-01
 -1       399 2.40000E+00 1.80000E+00 1.25500E-01
 -1       400 2.80000E+00 1.80000E+00 1.25500E-01
 -1       401 3.20000E+00 1.80000E+00 1.25500E-01
 -1       402 3.60000E+00 1.80000E+00 1.25500E-01
 -1       403 4.40000E+00 1.80000E+00 1.25500E-01
 -1       404 4.80000E+00 1.80000E+00 1.25500E-01
 -1       405 5.20000E+00 1.80000E+00 1.25500E-01
 -1       406 0.00000E+00 2.00000E+00 1.25500E-01
 -1       407 2.00000E-01 2.00000E+00 1.25500E-01
 -1       408 4.00000E-01 2.00000E+00 1.25500E-01
 -1       409 6.00000E-01 2.00000E+00 1.25500E-01
 -1       410 8.00000E-01 2.00000E+00 1.25500E-01
 -1       411 1.00000E+00 2.00000E+00 1.25500E-01
 -1       412 1.20000E+00 2.00000E+00 1.25500E-01
 -1       413 1.60000E+00 2.00000E+00 1.25500E-01
 -1       414 1.80000E+00 2.00000E+00 1.25500E-01
 -1       415 2.00000E+00 2.00000E+00 1.25500E-01
 -1       416 2.20000E+00 2.00000E+00 1.25500E-01
 -1       417 2.40000E+00 2.00000E+00 1.25500E-01
 -1       418 2.60000E+00 2.00000E+00 1.25500E-01
 -1       419 2.80000E+00 2.00000E+00 1.25500E-01
 -1       420 3.00000E+00 2.00000E+00 1.25500E-01
 -1       421 3.20000E+00 2.00000E+00 1.25500E-01
 -1       422 3.40000E+00 2.00000E+00 1.25500E-01
 -1       423 3.60000E+00 2.00000E+00 1.25500E-01
 -1       424 4.40000E+00 2.00000E+00 1.25500E-01
 -1       425 4.60000E+00 2.00000E+00 1.25500E-01
 -1       426 4.80000E+00 2.00000E+00 1.25500E-01
 -1       427 5.00000E+00 2.00000E+00 1.25500E-01
 -1       428 5.20000E+00 2.00000E+00 1.25500E-01
 -1       429 0.00000E+00 2.20000E+00 1.25500E-01
 -1       430 4.00000E-01 2.20000E+00 1.25500E-01
 -1       431 8.00000E-01 2.20000E+00 1.25500E-01
 -1       432 1.60000E+00 2.20000E+00 1.25500E-01
 -1       433 2.00000E+00 2.20000E+00 1.25500E-01
 -1       434 2.40000E+00 2.20000E+00 1.25500E-01
 -1       435 2.80000E+00 2.20000E+00 1.25500E-01
 -1       436 3.20000E+00 2.20000E+00 1.25500E-01
 -1       437 3.60000E+00 2.20000E+00 1.25500E-01
 -1       438 4.80000E+00 2.20000E+00 1.25500E-01
 -1       439 5.20000E+00 2.20000E+00 1.25500E-01
 -1       440 0.00000E+00 2.40000E+00 1.25500E-01
 -1       441 2.00000E-01 2.40000E+00 1.25500E-01
 -1       442 4.00000E-01 2.40000E+00 1.25500E-01
 -1       443 6.00000E-01 2.40000E+00 1.25500E-01
 -1       444 8.00000E-01 2.40000E+00 1.25500E-01
 -1       445 1.60000E+00 2.40000E+00 1.25500E-01
 -1       446 1.80000E+00 2.40000E+00 1.25500E-01
 -1       447 2.00000E+00 2.40000E+00 1.25500E-01
 -1       448 2.20000E+00 2.40000E+00 1.25500E-01
 -1       449 2.40000E+00 2.40000E+00 1.25500E-01
 -1       450 2.60000E+00 2.40000E+00 1.25500E-01
 -1       451 2.80000E+00 2.40000E+00 1.25500E-01
 -1       452 3.00000E+00 2.40000E+00 1.25500E-01
 -1       453 3.20000E+00 2.40000E+00 1.25500E-01
 -1       454 3.40000E+00 2.40000E+00 1.25500E-01
 -1       455 3.60000E+00 2.40000E+00 1.25500E-01
 -1       456 4.80000E+00 2.40000E+00 1.25500E-01
 -1       457 5.00000E+00 2.40000E+00 1.25500E-01
 -1       458 5.20000E+00 2.40000E+00 1.25500E-01
 -1       459 0.00000E+00 2.60000E+00 1.25500E-01
 -1       460 4.00000E-01 2.60000E+00 1.25500E-01
 -1       461 1.60000E+00 2.60000E+00 1.25500E-01
 -1       462 2.00000E+00 2.60000E+00 1.25500E-01
 -1       463 2.40000E+00 2.60000E+00 1.25500E-01
 -1       464 2.80000E+00 2.60000E+00 1.25500E-01
 -1       465 3.20000E+00 2.60000E+00 1.25500E-01
 -1       466 3.60000E+00 2.60000E+00 1.25500E-01
 -1       467 4.80000E+00 2.60000E+00 1.25500E-01
 -1       468 5.20000E+00 2.60000E+00 1.25500E-01
 -1       469 0.00000E+00 2.80000E+00 1.25500E-01
 -1       470 2.00000E-01 2.80000E+00 1.25500E-01
 -1       471 4.00000E-01 2.80000E+00 1.25500E-01
 -1       472 6.00000E-01 2.80000E+00 1.25500E-01
 -1       473 8.00000E-01 2.80000E+00 1.25500E-01
 -1       474 1.60000E+00 2.80000E+00 1.25500E-01
 -1       475 1.80000E+00 2.80000E+00 1.25500E-01
 -1       476 2.00000E+00 2.80000E+00 1.25500E-01
 -1       477 2.20000E+00 2.80000E+00 1.25500E-01
 -1       478 2.40000E+00 2.80000E+00 1.25500E-01
 -1       479 2.60000E+00 2.80000E+00 1.25500E-01
 -1       480 2.80000E+00 2.80000E+00 1.25500E-01
 -1       481 3.00000E+00 2.80000E+00 1.25500E-01
 -1       482 3.20000E+00 2.80000E+00 1.25500E-01
 -1       483 3.40000E+00 2.80000E+00 1.25500E-01
 -1       484 3.60000E+00 2.80000E+00 1.25500E-01
 -1       485 4.40000E+00 2.80000E+00 1.25500E-01
 -1       486 4.60000E+00 2.80000E+00 1.25500E-01
 -1       487 4.80000E+00 2.80000E+00 1.25500E-01
 -1       488 5.00000E+00 2.80000E+00 1.25500E-01
 -1       489 5.20000E+00 2.80000E+00 1.25500E-01
 -1       490 0.00000E+00 3.00000E+00 1.25500E-01
 -1       491 4.00000E-01 3.00000E+00 1.25500E-01
 -1       492 8.00000E-01 3.00000E+00 1.25500E-01
 -1       493 1.60000E+00 3.00000E+00 1.25500E-01
 -1       494 2.00000E+00 3.00000E+00 1.25500E-01
 -1       495 2.40000E+00 3.00000E+00 1.25500E-01
 -1       496 2.80000E+00 3.00000E+00 1.25500E-01
 -1       497 3.20000E+00 3.00000E+00 1.25500E-01
 -1       498 3.60000E+00 3.00000E+00 1.25500E-01
 -1       499 4.40000E+00 3.00000E+00 1.25500E-01
 -1       500 4.80000E+00 3.00000E+00 1.25500E-01
 -1       501 5.20000E+00 3.00000E+00 1.25500E-01
 -1       502 0.00000E+00 3.20000E+00 1.25500E-01
 -1       503 2.00000E-01 3.20000E+00 1.25500E-01
 -1       504 4.00000E-01 3.20000E+00 1.25500E-01
 -1       505 6.00000E-01 3.20000E+00 1.25500E-01
 -1       506 8.00000E-01 3.20000E+00 1.25500E-01
 -1       507 1.00000E+00 3.20000E+00 1.25500E-01
 -1       508 1.20000E+00 3.20000E+00 1.25500E-01
 -1       509 1.60000E+00 3.20000E+00 1.25500E-01
 -1       510 1.80000E+00 3.20000E+00 1.25500E-01
 -1       511 2.00000E+00 3.20000E+00 1.25500E-01
 -1       512 2.20000E+00 3.20000E+00 1.25500E-01
 -1       513 2.40000E+00 3.20000E+00 1.25500E-01
 -1       514 2.60000E+00 3.20000E+00 1.25500E-01
 -1       515 2.80000E+00 3.20000E+00 1.25500E-01
 -1       516 3.00000E+00 3.20000E+00 1.25500E-01
 -1       517 3.20000E+00 3.20000E+00 1.25500E-01
 -1       518 3.40000E+00 3.20000E+00 1.25500E-01
 -1       519 3.60000E+00 3.20000E+00 1.25500E-01
 -1       520 4.00000E+00 3.20000E+00 1.25500E-01
 -1       521 4.20000E+00 3.20000E+00 1.25500E-01
 -1       522 4.40000E+00 3.20000E+00 1.25500E-01
 -1       523 4.60000E+00 3.20000E+00 1.25500E-01
 -1       524 4.80000E+00 3.20000E+00 1.25500E-01
 -1       525 5.00000E+00 3.20000E+00 1.25500E-01
 -1       526 5.20000E+00 3.20000E+00 1.25500E-01
 -1       527 0.00000E+00 3.40000E+00 1.25500E-01
 -1       528 4.00000E-01 3.40000E+00 1.25500E-01
 -1       529 8.00000E-01 3.40000E+00 1.25500E-01
 -1       530 1.20000E+00 3.40000E+00 1.25500E-01
 -1       531 1.60000E+00 3.40000E+00 1.25500E-01
 -1       532 2.00000E+00 3.40000E+00 1.25500E-01
 -1       533 2.40000E+00 3.40000E+00 1.25500E-01
 -1       534 2.80000E+00 3.40000E+00 1.25500E-01
 -1       535 3.20000E+00 3.40000E+00 1.25500E-01
 -1       536 3.60000E+00 3.40000E+00 1.25500E-01
 -1       537 4.00000E+00 3.40000E+00 1.25500E-01
 -1       538 4.40000E+00 3.40000E+00 1.25500E-01
 -1       539 4.80000E+00 3.40000E+00 1.25500E-01
 -1       540 5.20000E+00 3.40000E+00 1.25500E-01
 -1       541 0.00000E+00 3.60000E+00 1.25500E-01
 -1       542 2.00000E-01 3.60000E+00 1.25500E-01
 -1       543 4.00000E-01 3.60000E+00 1.25500E-01
 -1       544 6.00000E-01 3.60000E+00 1.25500E-01
 -1       545 8.00000E-01 3.60000E+00 1.25500E-01
 -1       546 1.00000E+00 3.60000E+00 1.25500E-01
 -1       547 1.20000E+00 3.60000E+00 1.25500E-01
 -1       548 1.40000E+00 3.60000E+00 1.25500E-01
 -1       549 1.60000E+00 3.60000E+00 1.25500E-01
 -1       550 1.80000E+00 3.60000E+00 1.25500E-01
 -1       551 2.00000E+00 3.60000E+00 1.25500E-01
 -1       552 2.20000E+00 3.60000E+00 1.25500E-01
 -1       553 2.40000E+00 3.60000E+00 1.25500E-01
 -1       554 2.60000E+00 3.60000E+00 1.25500E-01
 -1       555 2.80000E+00 3.60000E+00 1.25500E-01
 -1       556 3.00000E+00 3.60000E+00 1.25500E-01
 -1       557 3.20000E+00 3.60000E+00 1.25500E-01
 -1       558 3.40000E+00 3.60000E+00 1.25500E-01
 -1       559 3.60000E+00 3.60000E+00 1.25500E-01
 -1       560 3.80000E+00 3.60000E+00 1.25500E-01
 -1       561 4.00000E+00 3.60000E+00 1.25500E-01
 -1       562 4.20000E+00 3.60000E+00 1.25500E-01
 -1       563 4.40000E+00 3.60000E+00 1.25500E-01
 -1       564 4.60000E+00 3.60000E+00 1.25500E-01
 -1       565 4.80000E+00 3.60000E+00 1.25500E-01
 -1       566 5.00000E+00 3.60000E+00 1.25500E-01
 -1       567 5.20000E+00 3.60000E+00 1.25500E-01
 -1       568 0.00000E+00 3.80000E+00 1.25500E-01
 -1       569 4.00000E-01 3.80000E+00 1.25500E-01
 -1       570 8.00000E-01 3.80000E+00 1.25500E-01
 -1       571 1.20000E+00 3.80000E+00 1.25500E-01
 -1       572 1.60000E+00 3.80000E+00 1.25500E-01
 -1       573 3.60000E+00 3.80000E+00 1.25500E-01
 -1       574 4.00000E+00 3.80000E+00 1.25500E-01
 -1       575 4.40000E+00 3.80000E+00 1.25500E-01
 -1       576 4.80000E+00 3.80000E+00 1.25500E-01
 -1       577 5.20000E+00 3.80000E+00 1.25500E-01
 -1       578 0.00000E+00 4.00000E+00 1.25500E-01
 -1       579 2.00000E-01 4.00000E+00 1.25500E-01
 -1       580 4.00000E-01 4.00000E+00 1.25500E-01
 -1       581 6.00000E-01 4.00000E+00 1.25500E-01
 -1       582 8.00000E-01 4.00000E+00 1.25500E-01
 -1       583 1.00000E+00 4.00000E+00 1.25500E-01